 Gaussian 16, Revision B.01,
 Gaussian 16:  EM64L-G16RevB.01 20-Dec-2017

 ------------------------------------------
 #p HF/3-21g out=wfn density=current NoSymm
 ------------------------------------------

 ------
 STEP 0
 ------
 Symbolic Z-matrix:
 Charge =  0 Multiplicity = 1

                          Input orientation:
 ---------------------------------------------------------------------
 Center     Atomic      Atomic             Coordinates (Angstroms)
 Number     Number       Type             X           Y           Z
 ---------------------------------------------------------------------
      1          6           0        4.730509    1.288533    0.463983
      2          6           0        3.895041    0.033141    0.517227
      3          8           0        2.773020   -0.011744   -0.021787
      4          7           0        4.409480   -0.996630    1.179876
      5          1           0        3.901534   -1.741664    1.366552
      6          1           0        5.223114   -0.985284    1.534148
      7          1           0        4.504864    1.791426    1.250524
      8          1           0        5.648318    1.044998    0.438328
      9          1           0        4.447404    1.910854   -0.252683
 ---------------------------------------------------------------------

 SCF Done:  E(RHF) =  -206.753072267     A.U. after   14 cycles

 Alpha  occ. eigenvalues --  -20.39876 -15.48470 -11.29346 -11.13738  -1.36685
 Alpha  occ. eigenvalues --   -1.24048  -1.04613  -0.83295  -0.76708  -0.66818
 Alpha  occ. eigenvalues --   -0.64031  -0.60410  -0.55521  -0.52921  -0.39939
 Alpha  occ. eigenvalues --   -0.39208
 Alpha virt. eigenvalues --    0.22001   0.27621   0.32561   0.34250   0.37026
 Alpha virt. eigenvalues --    0.39062   0.44034   0.57225   0.65353   0.88121
 Alpha virt. eigenvalues --    0.95849   0.97609   1.03058   1.07570   1.09708

 Mulliken charges:
               1
     1  C   -0.727296
     2  C    0.801980
     3  O   -0.639961
     4  N   -0.924042
     5  H    0.364181
     6  H    0.344815
     7  H    0.272087
     8  H    0.230675
     9  H    0.277561
 Sum of Mulliken charges =   0.00000

 Dipole moment (field-independent basis, Debye):
    X=              3.6291    Y=             -0.3140    Z=              2.3573  Tot=              4.3389
 Quadrupole moment (field-independent basis, Debye-Ang):
   XX=              2.3763   YY=            -19.8840   ZZ=            -21.4452
   XY=             -1.2416   XZ=             10.2437   YZ=             -2.0781

 Normal termination of Gaussian 16 at Tue May 31 16:30:18 2022.
