 Gaussian 16, Revision B.01,
 Gaussian 16:  EM64L-G16RevB.01 20-Dec-2017

 ----------------------------------------------
 #p HF/STO-3G POP=Chelpg density=current NoSymm
 ----------------------------------------------

 ------
 STEP 0
 ------
 Symbolic Z-matrix:
 Charge =  0 Multiplicity = 1

                          Input orientation:
 ---------------------------------------------------------------------
 Center     Atomic      Atomic             Coordinates (Angstroms)
 Number     Number       Type             X           Y           Z
 ---------------------------------------------------------------------
      1          6           0        4.730509    1.288533    0.463983
      2          6           0        3.895041    0.033141    0.517227
      3          8           0        2.773020   -0.011744   -0.021787
      4          7           0        4.409480   -0.996630    1.179876
      5          1           0        3.901534   -1.741664    1.366552
      6          1           0        5.223114   -0.985284    1.534148
      7          1           0        4.504864    1.791426    1.250524
      8          1           0        5.648318    1.044998    0.438328
      9          1           0        4.447404    1.910854   -0.252683
 ---------------------------------------------------------------------

 SCF Done:  E(RHF) =  -205.185910050     A.U. after   13 cycles

 Alpha  occ. eigenvalues --  -20.19391 -15.35875 -11.14868 -11.05116  -1.29555
 Alpha  occ. eigenvalues --   -1.17165  -1.00146  -0.77270  -0.71045  -0.62858
 Alpha  occ. eigenvalues --   -0.59889  -0.56653  -0.48001  -0.46929  -0.31183
 Alpha  occ. eigenvalues --   -0.29930
 Alpha virt. eigenvalues --    0.33900   0.63511   0.71080   0.75077   0.80145
 Alpha virt. eigenvalues --    0.83378   0.91580   0.96383   1.05742

 Mulliken charges:
               1
     1  C   -0.330598
     2  C    0.334027
     3  O   -0.293066
     4  N   -0.524878
     5  H    0.240557
     6  H    0.240173
     7  H    0.114109
     8  H    0.104009
     9  H    0.115667
 Sum of Mulliken charges =   0.00000

 Dipole moment (field-independent basis, Debye):
    X=              2.3528    Y=             -0.4079    Z=              1.6374  Tot=              2.8954
 Quadrupole moment (field-independent basis, Debye-Ang):
   XX=             -5.2437   YY=            -19.7798   ZZ=            -20.4494
   XY=             -1.7212   XZ=              7.0641   YZ=             -1.5318

 ESP charges:
               1
     1  C   -0.517879
     2  C    0.777254
     3  O   -0.472257
     4  N   -0.876308
     5  H    0.350313
     6  H    0.342629
     7  H    0.135927
     8  H    0.135542
     9  H    0.124777
 Sum of ESP charges =   0.00000

 Normal termination of Gaussian 16 at Thu May 19 11:16:28 2022.
